data_9326-ICSD
#©2002 by Fachinformationszentrum Karlsruhe, and the U.S. Secretary of 
#Commerce on behalf of the United States.  All rights reserved.
_database_code_ICSD                9326
_audit_creation_date               1980/01/01
_audit_update_record               2000/07/15
_chemical_name_systematic          'Sodium Tecto-alumosilicate'
_chemical_formula_structural       'Na (Al Si O4)'
_chemical_formula_sum              'Al1 Na1 O4 Si1'
_chemical_name_mineral             'Zeolite A'
_publ_section_title
;
Revised crystal structure of dehydrated Na-type A-zeolite
;
loop_
_citation_id
_citation_journal_abbrev
_citation_year
_citation_journal_volume
_citation_page_first
_citation_page_last
_citation_journal_id_ASTM
primary
;
Zeitschrift fuer Kristallographie, Kristallgeometrie, Kristallphysik, 
Kristallchemie (-144,1977)
;
 1968 126 135 142 ZEKGAX
2 'Acta Crystallographica A (24,1968-38,1982)' 1960 13 737 741 ACACBN
loop_
_publ_author_name
'Smith, J.V.'
'Dowell, L.G.'
_cell_length_a                     12.28
_cell_length_b                     12.28
_cell_length_c                     12.28
_cell_angle_alpha                  90.
_cell_angle_beta                   90.
_cell_angle_gamma                  90.
_cell_volume                       1851.8
_cell_formula_units_Z              12
_symmetry_space_group_name_H-M     'P m -3 m'
_symmetry_Int_Tables_number        221
_refine_ls_R_factor_all            0.1
loop_
_symmetry_equiv_pos_site_id
_symmetry_equiv_pos_as_xyz
  1	'z, y, -x'
  2	'y, x, -z'
  3	'x, z, -y'
  4	'z, x, -y'
  5	'y, z, -x'
  6	'x, y, -z'
  7	'z, -y, x'
  8	'y, -x, z'
  9	'x, -z, y'
 10	'z, -x, y'
 11	'y, -z, x'
 12	'x, -y, z'
 13	'-z, y, x'
 14	'-y, x, z'
 15	'-x, z, y'
 16	'-z, x, y'
 17	'-y, z, x'
 18	'-x, y, z'
 19	'-z, -y, -x'
 20	'-y, -x, -z'
 21	'-x, -z, -y'
 22	'-z, -x, -y'
 23	'-y, -z, -x'
 24	'-x, -y, -z'
 25	'-z, -y, x'
 26	'-y, -x, z'
 27	'-x, -z, y'
 28	'-z, -x, y'
 29	'-y, -z, x'
 30	'-x, -y, z'
 31	'-z, y, -x'
 32	'-y, x, -z'
 33	'-x, z, -y'
 34	'-z, x, -y'
 35	'-y, z, -x'
 36	'-x, y, -z'
 37	'z, -y, -x'
 38	'y, -x, -z'
 39	'x, -z, -y'
 40	'z, -x, -y'
 41	'y, -z, -x'
 42	'x, -y, -z'
 43	'z, y, x'
 44	'y, x, z'
 45	'x, z, y'
 46	'z, x, y'
 47	'y, z, x'
 48	'x, y, z'
loop_
_atom_type_symbol
_atom_type_oxidation_number
Al3+  	3
Na1+  	1
O2-   	-2
Si4+  	4
loop_
_atom_site_label
_atom_site_type_symbol
_atom_site_symmetry_multiplicity
_atom_site_Wyckoff_symbol
_atom_site_fract_x
_atom_site_fract_y
_atom_site_fract_z
_atom_site_occupancy
_atom_site_attached_hydrogens
_atom_site_B_iso_or_equiv
Na1 Na1+ 24 l 0.5 0.4376(54) 0.0425(69) 0.1667 0 1.30(33) 
Na2 Na1+ 8 g 0.2124(14) 0.2124(14) 0.2124(14) 1. 0 1.4(8) 
Al1 Al3+ 24 k 0.3701(9) 0.1820(11) 0 0.5 0 0.0(3) 
Si1 Si4+ 24 k 0.3701(9) 0.1820(11) 0 0.5 0 0.0(3) 
O1 O2- 24 m 0.1117(12) 0.1117(12) 0.3399(15) 1. 0 1.5(6) 
O2 O2- 12 h 0 0.2343(27) 0.5 1. 0 2.00(11) 
O3 O2- 12 i 0.3016(17) 0.3016(17) 0 1. 0 1.10(11) 

#End of data_9326-ICSD
