data_9830-ICSD
#©2002 by Fachinformationszentrum Karlsruhe, and the U.S. Secretary of 
#Commerce on behalf of the United States.  All rights reserved.
_database_code_ICSD                9830
_audit_creation_date               1980/01/01
_audit_update_record               1999/06/02
_chemical_name_systematic          'Sodium Tecto-alumotrisilicate'
_chemical_formula_structural       'Na Al Si3 O8'
_chemical_formula_sum              'Al1 Na1 O8 Si3'
_chemical_name_mineral             'Albite high'
_publ_section_title
;
The crystal structures of high albite and monalbite at high 
temperatures
;
loop_
_citation_id
_citation_journal_abbrev
_citation_year
_citation_journal_volume
_citation_page_first
_citation_page_last
_citation_journal_id_ASTM
primary 'American Mineralogist' 1976 61 1213 1225 AMMIAY
loop_
_publ_author_name
'Prewitt, C.T.'
'Sueno, S.'
'Papike, J.J.'
_cell_length_a                     8.1829(7)
_cell_length_b                     12.8947(6)
_cell_length_c                     7.1190(5)
_cell_angle_alpha                  93.041(5)
_cell_angle_beta                   116.352(4)
_cell_angle_gamma                  90.172(4)
_cell_volume                       671.87
_cell_formula_units_Z              4
_symmetry_space_group_name_H-M     'C -1'
_symmetry_Int_Tables_number        2
_refine_ls_R_factor_all            0.052
loop_
_symmetry_equiv_pos_site_id
_symmetry_equiv_pos_as_xyz
  1	'-x, -y, -z'
  2	'x, y, z'
  3	'-x+1/2, -y+1/2, -z'
  4	'x+1/2, y+1/2, z'
loop_
_atom_type_symbol
_atom_type_oxidation_number
Al3+  	3
Na1+  	1
O2-   	-2
Si4+  	4
loop_
_atom_site_label
_atom_site_type_symbol
_atom_site_symmetry_multiplicity
_atom_site_Wyckoff_symbol
_atom_site_fract_x
_atom_site_fract_y
_atom_site_fract_z
_atom_site_occupancy
_atom_site_attached_hydrogens
_atom_site_B_iso_or_equiv
Na1 Na1+ 4 i 0.2748(4) 0.0059(3) 0.1348(6) 1. 0 8.60(13) 
Al1 Al3+ 4 i 0.0089(1) 0.1674(1) 0.2164(1) 0.25 0 1.22(2) 
Al2 Al3+ 4 i 0.0054(1) 0.8155(1) 0.2284(1) 0.25 0 1.21(2) 
Al3 Al3+ 4 i 0.6919(1) 0.1096(1) 0.3242(1) 0.25 0 1.24(2) 
Al4 Al3+ 4 i 0.6877(1) 0.8785(1) 0.3525(2) 0.25 0 1.23(2) 
Si1 Si4+ 4 i 0.0089(1) 0.1674(1) 0.2164(1) 0.75 0 1.22(2) 
Si2 Si4+ 4 i 0.0054(1) 0.8155(1) 0.2284(1) 0.75 0 1.21(2) 
Si3 Si4+ 4 i 0.6919(1) 0.1096(1) 0.3242(2) 0.75 0 1.24(2) 
Si4 Si4+ 4 i 0.6877(1) 0.8785(1) 0.3525(2) 0.75 0 1.23(2) 
O1 O2- 4 i 0.0046(4) 0.1359(2) 0.9874(5) 1. 0 2.44(5) 
O2 O2- 4 i 0.5951(4) 0.9924(2) 0.2798(4) 1. 0 1.84(4) 
O3 O2- 4 i 0.8210(4) 0.1136(2) 0.2021(5) 1. 0 2.48(5) 
O4 O2- 4 i 0.8198(4) 0.8491(3) 0.2434(5) 1. 0 2.90(6) 
O5 O2- 4 i 0.0198(4) 0.2933(2) 0.2748(5) 1. 0 2.26(5) 
O6 O2- 4 i 0.0224(4) 0.6890(2) 0.2241(5) 1. 0 2.27(5) 
O7 O2- 4 i 0.1942(4) 0.1141(2) 0.3900(4) 1. 0 2.27(5) 
O8 O2- 4 i 0.1882(4) 0.8688(2) 0.4234(5) 1. 0 2.50(5) 

#End of data_9830-ICSD
